Program Version,EnergyPlus, Linux, VERSION 7.1.0.012, YMD=2012.12.21 16:12
